<?xml version="1.0" encoding="UTF-8"?>

<!-- generated on Wed Aug 19 13:32:13 2020 by Eclipse SUMO GUI Version 1.3.1
<configuration xmlns:xsi="http://www.w3.org/2001/XMLSchema-instance" xsi:noNamespaceSchemaLocation="http://sumo.dlr.de/xsd/sumoConfiguration.xsd">

    <input>
        <net-file value="new.net.xml"/>
        <route-files value="s2.rou.xml,person.rou.xml,pedestrian.rou.xml"/>
        <additional-files value="new.add.xml"/>
    </input>

    <output>
        <tripinfo-output value="tripinfo.xml"/>
    </output>

    <time>
        <begin value="0"/>
        <end value="10000"/>
    </time>

    <traci_server>
        <remote-port value="52350"/>
    </traci_server>

</configuration>
-->

<tripinfos xmlns:xsi="http://www.w3.org/2001/XMLSchema-instance" xsi:noNamespaceSchemaLocation="http://sumo.dlr.de/xsd/tripinfo_file.xsd">
    <tripinfo id="102" depart="4.00" departLane="5to3_0" departPos="8.10" departSpeed="0.00" departDelay="4.00" arrival="117.00" arrivalLane="3to2_0" arrivalPos="200.00" arrivalSpeed="21.63" duration="113.00" routeLength="401.10" waitingTime="0.00" waitingCount="0" stopTime="62.00" timeLoss="36.36" rerouteNo="0" devices="tripinfo_102" vType="BUS" speedFactor="1.08" vaporized=""/>
    <tripinfo id="flow0.0" depart="27.00" departLane="2to3_0" departPos="3.10" departSpeed="0.00" departDelay="27.00" arrival="119.00" arrivalLane="4to8_0" arrivalPos="200.00" arrivalSpeed="19.42" duration="92.00" routeLength="651.72" waitingTime="40.00" waitingCount="2" stopTime="0.00" timeLoss="59.38" rerouteNo="0" devices="tripinfo_flow0.0" vType="vtype1" speedFactor="0.94" vaporized=""/>
    <tripinfo id="flow0.1" depart="28.00" departLane="2to3_0" departPos="3.10" departSpeed="0.00" departDelay="27.00" arrival="119.00" arrivalLane="4to8_1" arrivalPos="200.00" arrivalSpeed="18.28" duration="91.00" routeLength="651.72" waitingTime="35.00" waitingCount="1" stopTime="0.00" timeLoss="58.18" rerouteNo="0" devices="tripinfo_flow0.1" vType="vtype1" speedFactor="0.94" vaporized=""/>
    <tripinfo id="flow0.2" depart="29.00" departLane="2to3_0" departPos="3.10" departSpeed="0.00" departDelay="27.00" arrival="120.00" arrivalLane="4to8_2" arrivalPos="200.00" arrivalSpeed="19.74" duration="91.00" routeLength="651.72" waitingTime="37.00" waitingCount="3" stopTime="0.00" timeLoss="58.33" rerouteNo="0" devices="tripinfo_flow0.2" vType="vtype1" speedFactor="1.16" vaporized=""/>
    <tripinfo id="flow0.3" depart="33.00" departLane="2to3_0" departPos="3.10" departSpeed="0.00" departDelay="30.00" arrival="122.00" arrivalLane="4to8_1" arrivalPos="200.00" arrivalSpeed="18.77" duration="89.00" routeLength="651.72" waitingTime="29.00" waitingCount="2" stopTime="0.00" timeLoss="55.54" rerouteNo="0" devices="tripinfo_flow0.3" vType="vtype1" speedFactor="1.02" vaporized=""/>
    <tripinfo id="flow0.4" depart="37.00" departLane="2to3_0" departPos="3.10" departSpeed="0.00" departDelay="33.00" arrival="123.00" arrivalLane="4to8_2" arrivalPos="200.00" arrivalSpeed="19.20" duration="86.00" routeLength="651.72" waitingTime="29.00" waitingCount="2" stopTime="0.00" timeLoss="52.64" rerouteNo="0" devices="tripinfo_flow0.4" vType="vtype1" speedFactor="1.01" vaporized=""/>
    <tripinfo id="flow0.8" depart="53.00" departLane="2to3_0" departPos="3.10" departSpeed="0.00" departDelay="45.00" arrival="123.00" arrivalLane="4to8_0" arrivalPos="200.00" arrivalSpeed="19.24" duration="70.00" routeLength="651.72" waitingTime="7.00" waitingCount="1" stopTime="0.00" timeLoss="37.20" rerouteNo="0" devices="tripinfo_flow0.8" vType="vtype1" speedFactor="0.92" vaporized=""/>
    <tripinfo id="flow7.0" depart="100.00" departLane="4to3_0" departPos="4.10" departSpeed="0.00" departDelay="0.00" arrival="124.00" arrivalLane="3to2_0" arrivalPos="200.00" arrivalSpeed="24.66" duration="24.00" routeLength="423.14" waitingTime="0.00" waitingCount="0" stopTime="0.00" timeLoss="9.87" rerouteNo="0" devices="tripinfo_flow7.0" vType="vtype0" speedFactor="1.03" vaporized=""/>
    <tripinfo id="flow0.7" depart="49.00" departLane="2to3_0" departPos="3.10" departSpeed="0.00" departDelay="42.00" arrival="125.00" arrivalLane="4to8_2" arrivalPos="200.00" arrivalSpeed="18.11" duration="76.00" routeLength="651.72" waitingTime="17.00" waitingCount="3" stopTime="0.00" timeLoss="42.94" rerouteNo="0" devices="tripinfo_flow0.7" vType="vtype1" speedFactor="0.87" vaporized=""/>
    <tripinfo id="flow0.9" depart="67.00" departLane="2to3_0" departPos="3.10" departSpeed="0.00" departDelay="58.00" arrival="125.00" arrivalLane="4to8_0" arrivalPos="200.00" arrivalSpeed="19.89" duration="58.00" routeLength="651.72" waitingTime="3.00" waitingCount="1" stopTime="0.00" timeLoss="24.93" rerouteNo="0" devices="tripinfo_flow0.9" vType="vtype1" speedFactor="0.95" vaporized=""/>
    <tripinfo id="flow0.5" depart="47.00" departLane="2to3_0" departPos="3.10" departSpeed="0.00" departDelay="42.00" arrival="127.00" arrivalLane="4to8_0" arrivalPos="200.00" arrivalSpeed="19.97" duration="80.00" routeLength="651.72" waitingTime="15.00" waitingCount="4" stopTime="0.00" timeLoss="47.26" rerouteNo="0" devices="tripinfo_flow0.5" vType="vtype1" speedFactor="0.89" vaporized=""/>
    <tripinfo id="flow0.6" depart="48.00" departLane="2to3_0" departPos="3.10" departSpeed="0.00" departDelay="42.00" arrival="127.00" arrivalLane="4to8_2" arrivalPos="200.00" arrivalSpeed="19.10" duration="79.00" routeLength="651.72" waitingTime="12.00" waitingCount="1" stopTime="0.00" timeLoss="45.90" rerouteNo="0" devices="tripinfo_flow0.6" vType="vtype1" speedFactor="0.83" vaporized=""/>
    <tripinfo id="flow7.1" depart="104.00" departLane="4to3_0" departPos="4.10" departSpeed="0.00" departDelay="4.00" arrival="128.00" arrivalLane="3to2_0" arrivalPos="200.00" arrivalSpeed="24.61" duration="24.00" routeLength="423.14" waitingTime="0.00" waitingCount="0" stopTime="0.00" timeLoss="9.43" rerouteNo="0" devices="tripinfo_flow7.1" vType="vtype0" speedFactor="0.87" vaporized=""/>
    <tripinfo id="flow0.10" depart="70.00" departLane="2to3_0" departPos="3.10" departSpeed="0.00" departDelay="60.00" arrival="129.00" arrivalLane="4to8_0" arrivalPos="200.00" arrivalSpeed="18.54" duration="59.00" routeLength="651.72" waitingTime="2.00" waitingCount="1" stopTime="0.00" timeLoss="26.28" rerouteNo="0" devices="tripinfo_flow0.10" vType="vtype1" speedFactor="1.01" vaporized=""/>
    <tripinfo id="flow0.11" depart="78.00" departLane="2to3_0" departPos="3.10" departSpeed="0.00" departDelay="67.00" arrival="129.00" arrivalLane="4to8_2" arrivalPos="200.00" arrivalSpeed="18.03" duration="51.00" routeLength="651.72" waitingTime="1.00" waitingCount="1" stopTime="0.00" timeLoss="17.81" rerouteNo="0" devices="tripinfo_flow0.11" vType="vtype1" speedFactor="1.09" vaporized=""/>
    <tripinfo id="flow0.12" depart="79.00" departLane="2to3_0" departPos="3.10" departSpeed="0.00" departDelay="67.00" arrival="131.00" arrivalLane="4to8_2" arrivalPos="200.00" arrivalSpeed="19.64" duration="52.00" routeLength="651.72" waitingTime="0.00" waitingCount="0" stopTime="0.00" timeLoss="18.54" rerouteNo="0" devices="tripinfo_flow0.12" vType="vtype1" speedFactor="1.03" vaporized=""/>
    <tripinfo id="flow0.13" depart="80.00" departLane="2to3_0" departPos="3.10" departSpeed="0.00" departDelay="67.00" arrival="131.00" arrivalLane="4to8_0" arrivalPos="200.00" arrivalSpeed="19.01" duration="51.00" routeLength="651.72" waitingTime="2.00" waitingCount="1" stopTime="0.00" timeLoss="18.02" rerouteNo="0" devices="tripinfo_flow0.13" vType="vtype1" speedFactor="1.00" vaporized=""/>
    <tripinfo id="flow0.14" depart="90.00" departLane="2to3_0" departPos="3.10" departSpeed="0.00" departDelay="76.00" arrival="132.00" arrivalLane="4to8_2" arrivalPos="200.00" arrivalSpeed="19.70" duration="42.00" routeLength="651.72" waitingTime="0.00" waitingCount="0" stopTime="0.00" timeLoss="9.32" rerouteNo="0" devices="tripinfo_flow0.14" vType="vtype1" speedFactor="1.02" vaporized=""/>
    <tripinfo id="flow7.2" depart="108.00" departLane="4to3_0" departPos="4.10" departSpeed="0.00" departDelay="8.00" arrival="133.00" arrivalLane="3to2_0" arrivalPos="200.00" arrivalSpeed="28.49" duration="25.00" routeLength="423.14" waitingTime="0.00" waitingCount="0" stopTime="0.00" timeLoss="10.17" rerouteNo="0" devices="tripinfo_flow7.2" vType="vtype0" speedFactor="1.01" vaporized=""/>
    <tripinfo id="flow3.1" depart="93.00" departLane="5to3_0" departPos="4.40" departSpeed="0.00" departDelay="3.00" arrival="150.00" arrivalLane="3to1_1" arrivalPos="200.00" arrivalSpeed="29.98" duration="57.00" routeLength="423.21" waitingTime="24.00" waitingCount="1" stopTime="0.00" timeLoss="42.23" rerouteNo="0" devices="tripinfo_flow3.1" vType="Taxi" speedFactor="1.03" vaporized=""/>
    <tripinfo id="flow3.2" depart="96.00" departLane="5to3_0" departPos="4.40" departSpeed="0.00" departDelay="6.00" arrival="151.00" arrivalLane="3to1_1" arrivalPos="200.00" arrivalSpeed="26.28" duration="55.00" routeLength="423.21" waitingTime="18.00" waitingCount="1" stopTime="0.00" timeLoss="40.56" rerouteNo="0" devices="tripinfo_flow3.2" vType="Taxi" speedFactor="1.08" vaporized=""/>
    <tripinfo id="flow4.0" depart="93.00" departLane="1to3_0" departPos="3.10" departSpeed="0.00" departDelay="3.00" arrival="151.00" arrivalLane="3to5_1" arrivalPos="200.00" arrivalSpeed="18.57" duration="58.00" routeLength="424.24" waitingTime="20.00" waitingCount="1" stopTime="0.00" timeLoss="36.71" rerouteNo="0" devices="tripinfo_flow4.0" vType="vtype1" speedFactor="0.98" vaporized=""/>
    <tripinfo id="flow4.1" depart="96.00" departLane="1to3_0" departPos="3.10" departSpeed="0.00" departDelay="6.00" arrival="151.00" arrivalLane="3to5_2" arrivalPos="200.00" arrivalSpeed="18.18" duration="55.00" routeLength="424.24" waitingTime="18.00" waitingCount="2" stopTime="0.00" timeLoss="33.05" rerouteNo="0" devices="tripinfo_flow4.1" vType="vtype1" speedFactor="0.99" vaporized=""/>
    <tripinfo id="flow2.0" depart="90.00" departLane="1to3_0" departPos="4.10" departSpeed="0.00" departDelay="0.00" arrival="152.00" arrivalLane="3to5_0" arrivalPos="200.00" arrivalSpeed="17.31" duration="62.00" routeLength="423.24" waitingTime="25.00" waitingCount="1" stopTime="0.00" timeLoss="47.51" rerouteNo="0" devices="tripinfo_flow2.0" vType="vtype0" speedFactor="0.92" vaporized=""/>
    <tripinfo id="flow3.0" depart="90.00" departLane="5to3_0" departPos="4.40" departSpeed="0.00" departDelay="0.00" arrival="152.00" arrivalLane="3to1_0" arrivalPos="200.00" arrivalSpeed="26.46" duration="62.00" routeLength="423.21" waitingTime="25.00" waitingCount="1" stopTime="0.00" timeLoss="47.20" rerouteNo="0" devices="tripinfo_flow3.0" vType="Taxi" speedFactor="1.09" vaporized=""/>
    <tripinfo id="flow3.3" depart="99.00" departLane="5to3_0" departPos="4.40" departSpeed="0.00" departDelay="9.00" arrival="154.00" arrivalLane="3to1_2" arrivalPos="200.00" arrivalSpeed="28.77" duration="55.00" routeLength="423.21" waitingTime="15.00" waitingCount="1" stopTime="0.00" timeLoss="40.29" rerouteNo="0" devices="tripinfo_flow3.3" vType="Taxi" speedFactor="1.06" vaporized=""/>
    <tripinfo id="flow4.2" depart="100.00" departLane="1to3_0" departPos="3.10" departSpeed="0.00" departDelay="10.00" arrival="154.00" arrivalLane="3to5_1" arrivalPos="200.00" arrivalSpeed="18.14" duration="54.00" routeLength="424.24" waitingTime="17.00" waitingCount="1" stopTime="0.00" timeLoss="32.22" rerouteNo="0" devices="tripinfo_flow4.2" vType="vtype1" speedFactor="0.88" vaporized=""/>
    <tripinfo id="flow4.3" depart="103.00" departLane="1to3_0" departPos="3.10" departSpeed="0.00" departDelay="13.00" arrival="154.00" arrivalLane="3to5_2" arrivalPos="200.00" arrivalSpeed="18.71" duration="51.00" routeLength="424.24" waitingTime="14.00" waitingCount="1" stopTime="0.00" timeLoss="29.05" rerouteNo="0" devices="tripinfo_flow4.3" vType="vtype1" speedFactor="0.94" vaporized=""/>
    <tripinfo id="flow4.5" depart="109.00" departLane="1to3_0" departPos="3.10" departSpeed="0.00" departDelay="19.00" arrival="154.00" arrivalLane="3to5_0" arrivalPos="200.00" arrivalSpeed="18.10" duration="45.00" routeLength="424.24" waitingTime="5.00" waitingCount="1" stopTime="0.00" timeLoss="23.51" rerouteNo="0" devices="tripinfo_flow4.5" vType="vtype1" speedFactor="1.04" vaporized=""/>
    <tripinfo id="flow3.4" depart="103.00" departLane="5to3_0" departPos="4.40" departSpeed="0.00" departDelay="13.00" arrival="155.00" arrivalLane="3to1_1" arrivalPos="200.00" arrivalSpeed="25.38" duration="52.00" routeLength="423.21" waitingTime="14.00" waitingCount="1" stopTime="0.00" timeLoss="37.43" rerouteNo="0" devices="tripinfo_flow3.4" vType="Taxi" speedFactor="1.10" vaporized=""/>
    <tripinfo id="flow4.7" depart="116.00" departLane="1to3_0" departPos="3.10" departSpeed="0.00" departDelay="26.00" arrival="155.00" arrivalLane="3to5_2" arrivalPos="200.00" arrivalSpeed="18.83" duration="39.00" routeLength="424.24" waitingTime="3.00" waitingCount="2" stopTime="0.00" timeLoss="17.75" rerouteNo="0" devices="tripinfo_flow4.7" vType="vtype1" speedFactor="0.99" vaporized=""/>
    <tripinfo id="flow3.5" depart="106.00" departLane="5to3_0" departPos="4.40" departSpeed="0.00" departDelay="16.00" arrival="156.00" arrivalLane="3to1_2" arrivalPos="200.00" arrivalSpeed="28.45" duration="50.00" routeLength="423.21" waitingTime="11.00" waitingCount="2" stopTime="0.00" timeLoss="35.10" rerouteNo="0" devices="tripinfo_flow3.5" vType="Taxi" speedFactor="1.03" vaporized=""/>
    <tripinfo id="flow3.7" depart="112.00" departLane="5to3_0" departPos="4.40" departSpeed="0.00" departDelay="22.00" arrival="156.00" arrivalLane="3to1_0" arrivalPos="200.00" arrivalSpeed="25.59" duration="44.00" routeLength="423.21" waitingTime="7.00" waitingCount="1" stopTime="0.00" timeLoss="29.30" rerouteNo="0" devices="tripinfo_flow3.7" vType="Taxi" speedFactor="1.08" vaporized=""/>
    <tripinfo id="flow4.6" depart="112.00" departLane="1to3_0" departPos="3.10" departSpeed="0.00" departDelay="22.00" arrival="156.00" arrivalLane="3to5_1" arrivalPos="200.00" arrivalSpeed="18.57" duration="44.00" routeLength="424.24" waitingTime="3.00" waitingCount="1" stopTime="0.00" timeLoss="22.19" rerouteNo="0" devices="tripinfo_flow4.6" vType="vtype1" speedFactor="1.08" vaporized=""/>
    <tripinfo id="flow3.9" depart="120.00" departLane="5to3_0" departPos="4.40" departSpeed="0.00" departDelay="30.00" arrival="157.00" arrivalLane="3to1_1" arrivalPos="200.00" arrivalSpeed="26.55" duration="37.00" routeLength="423.21" waitingTime="0.00" waitingCount="0" stopTime="0.00" timeLoss="22.89" rerouteNo="0" devices="tripinfo_flow3.9" vType="Taxi" speedFactor="0.92" vaporized=""/>
    <tripinfo id="flow4.4" depart="106.00" departLane="1to3_0" departPos="3.10" departSpeed="0.00" departDelay="16.00" arrival="157.00" arrivalLane="3to5_0" arrivalPos="200.00" arrivalSpeed="19.93" duration="51.00" routeLength="424.24" waitingTime="12.00" waitingCount="1" stopTime="0.00" timeLoss="28.88" rerouteNo="0" devices="tripinfo_flow4.4" vType="vtype1" speedFactor="1.03" vaporized=""/>
    <tripinfo id="flow3.6" depart="109.00" departLane="5to3_0" departPos="4.40" departSpeed="0.00" departDelay="19.00" arrival="158.00" arrivalLane="3to1_2" arrivalPos="200.00" arrivalSpeed="27.17" duration="49.00" routeLength="423.21" waitingTime="7.00" waitingCount="1" stopTime="0.00" timeLoss="34.77" rerouteNo="0" devices="tripinfo_flow3.6" vType="Taxi" speedFactor="1.03" vaporized=""/>
    <tripinfo id="flow4.8" depart="120.00" departLane="1to3_0" departPos="3.10" departSpeed="0.00" departDelay="30.00" arrival="158.00" arrivalLane="3to5_2" arrivalPos="200.00" arrivalSpeed="18.65" duration="38.00" routeLength="424.24" waitingTime="0.00" waitingCount="0" stopTime="0.00" timeLoss="15.98" rerouteNo="0" devices="tripinfo_flow4.8" vType="vtype1" speedFactor="0.98" vaporized=""/>
    <tripinfo id="flow3.8" depart="117.00" departLane="5to3_0" departPos="4.40" departSpeed="0.00" departDelay="27.00" arrival="160.00" arrivalLane="3to1_2" arrivalPos="200.00" arrivalSpeed="27.83" duration="43.00" routeLength="423.21" waitingTime="6.00" waitingCount="1" stopTime="0.00" timeLoss="28.38" rerouteNo="0" devices="tripinfo_flow3.8" vType="Taxi" speedFactor="0.94" vaporized=""/>
    <tripinfo id="flow3.10" depart="123.00" departLane="5to3_0" departPos="4.40" departSpeed="0.00" departDelay="33.00" arrival="160.00" arrivalLane="3to1_1" arrivalPos="200.00" arrivalSpeed="29.40" duration="37.00" routeLength="423.21" waitingTime="0.00" waitingCount="0" stopTime="0.00" timeLoss="22.04" rerouteNo="0" devices="tripinfo_flow3.10" vType="Taxi" speedFactor="1.08" vaporized=""/>
    <tripinfo id="flow4.9" depart="123.00" departLane="1to3_0" departPos="3.10" departSpeed="0.00" departDelay="33.00" arrival="160.00" arrivalLane="3to5_2" arrivalPos="200.00" arrivalSpeed="19.70" duration="37.00" routeLength="424.24" waitingTime="0.00" waitingCount="0" stopTime="0.00" timeLoss="14.81" rerouteNo="0" devices="tripinfo_flow4.9" vType="vtype1" speedFactor="1.08" vaporized=""/>
    <tripinfo id="flow3.12" depart="130.00" departLane="5to3_0" departPos="4.40" departSpeed="0.00" departDelay="40.00" arrival="161.00" arrivalLane="3to1_1" arrivalPos="200.00" arrivalSpeed="29.53" duration="31.00" routeLength="423.21" waitingTime="0.00" waitingCount="0" stopTime="0.00" timeLoss="16.59" rerouteNo="0" devices="tripinfo_flow3.12" vType="Taxi" speedFactor="0.97" vaporized=""/>
    <tripinfo id="flow4.10" depart="127.00" departLane="1to3_0" departPos="3.10" departSpeed="0.00" departDelay="37.00" arrival="161.00" arrivalLane="3to5_2" arrivalPos="200.00" arrivalSpeed="19.48" duration="34.00" routeLength="424.24" waitingTime="0.00" waitingCount="0" stopTime="0.00" timeLoss="12.71" rerouteNo="0" devices="tripinfo_flow4.10" vType="vtype1" speedFactor="1.24" vaporized=""/>
    <tripinfo id="flow4.11" depart="131.00" departLane="1to3_0" departPos="3.10" departSpeed="0.00" departDelay="41.00" arrival="161.00" arrivalLane="3to5_1" arrivalPos="200.00" arrivalSpeed="18.40" duration="30.00" routeLength="424.24" waitingTime="0.00" waitingCount="0" stopTime="0.00" timeLoss="8.14" rerouteNo="0" devices="tripinfo_flow4.11" vType="vtype1" speedFactor="1.06" vaporized=""/>
    <tripinfo id="flow3.11" depart="127.00" departLane="5to3_0" departPos="4.40" departSpeed="0.00" departDelay="37.00" arrival="162.00" arrivalLane="3to1_2" arrivalPos="200.00" arrivalSpeed="28.59" duration="35.00" routeLength="423.21" waitingTime="0.00" waitingCount="0" stopTime="0.00" timeLoss="20.33" rerouteNo="0" devices="tripinfo_flow3.11" vType="Taxi" speedFactor="0.89" vaporized=""/>
    <tripinfo id="flow3.13" depart="134.00" departLane="5to3_0" departPos="4.40" departSpeed="0.00" departDelay="44.00" arrival="163.00" arrivalLane="3to1_1" arrivalPos="200.00" arrivalSpeed="27.56" duration="29.00" routeLength="423.21" waitingTime="0.00" waitingCount="0" stopTime="0.00" timeLoss="14.66" rerouteNo="0" devices="tripinfo_flow3.13" vType="Taxi" speedFactor="0.97" vaporized=""/>
    <tripinfo id="flow4.12" depart="134.00" departLane="1to3_0" departPos="3.10" departSpeed="0.00" departDelay="44.00" arrival="163.00" arrivalLane="3to5_2" arrivalPos="200.00" arrivalSpeed="19.77" duration="29.00" routeLength="424.24" waitingTime="0.00" waitingCount="0" stopTime="0.00" timeLoss="7.55" rerouteNo="0" devices="tripinfo_flow4.12" vType="vtype1" speedFactor="1.09" vaporized=""/>
    <tripinfo id="flow3.14" depart="137.00" departLane="5to3_0" departPos="4.40" departSpeed="0.00" departDelay="47.00" arrival="164.00" arrivalLane="3to1_2" arrivalPos="200.00" arrivalSpeed="29.36" duration="27.00" routeLength="423.21" waitingTime="0.00" waitingCount="0" stopTime="0.00" timeLoss="12.03" rerouteNo="0" devices="tripinfo_flow3.14" vType="Taxi" speedFactor="0.90" vaporized=""/>
    <tripinfo id="flow3.15" depart="140.00" departLane="5to3_0" departPos="4.40" departSpeed="0.00" departDelay="50.00" arrival="165.00" arrivalLane="3to1_1" arrivalPos="200.00" arrivalSpeed="29.60" duration="25.00" routeLength="423.21" waitingTime="0.00" waitingCount="0" stopTime="0.00" timeLoss="10.68" rerouteNo="0" devices="tripinfo_flow3.15" vType="Taxi" speedFactor="0.93" vaporized=""/>
    <tripinfo id="flow3.16" depart="144.00" departLane="5to3_0" departPos="4.40" departSpeed="0.00" departDelay="54.00" arrival="168.00" arrivalLane="3to1_1" arrivalPos="200.00" arrivalSpeed="28.06" duration="24.00" routeLength="423.21" waitingTime="0.00" waitingCount="0" stopTime="0.00" timeLoss="9.27" rerouteNo="0" devices="tripinfo_flow3.16" vType="Taxi" speedFactor="1.10" vaporized=""/>
    <tripinfo id="flow4.14" depart="141.00" departLane="1to3_0" departPos="3.10" departSpeed="0.00" departDelay="51.00" arrival="169.00" arrivalLane="3to5_1" arrivalPos="200.00" arrivalSpeed="18.95" duration="28.00" routeLength="424.24" waitingTime="0.00" waitingCount="0" stopTime="0.00" timeLoss="6.70" rerouteNo="0" devices="tripinfo_flow4.14" vType="vtype1" speedFactor="1.08" vaporized=""/>
    <tripinfo id="flow3.17" depart="147.00" departLane="5to3_0" departPos="4.40" departSpeed="0.00" departDelay="57.00" arrival="171.00" arrivalLane="3to1_1" arrivalPos="200.00" arrivalSpeed="28.51" duration="24.00" routeLength="423.21" waitingTime="0.00" waitingCount="0" stopTime="0.00" timeLoss="9.52" rerouteNo="0" devices="tripinfo_flow3.17" vType="Taxi" speedFactor="1.07" vaporized=""/>
    <tripinfo id="flow4.15" depart="144.00" departLane="1to3_0" departPos="3.10" departSpeed="0.00" departDelay="54.00" arrival="174.00" arrivalLane="3to5_1" arrivalPos="200.00" arrivalSpeed="19.01" duration="30.00" routeLength="424.24" waitingTime="0.00" waitingCount="0" stopTime="0.00" timeLoss="8.30" rerouteNo="0" devices="tripinfo_flow4.15" vType="vtype1" speedFactor="1.04" vaporized=""/>
    <tripinfo id="flow3.18" depart="154.00" departLane="5to3_0" departPos="4.40" departSpeed="0.00" departDelay="64.00" arrival="178.00" arrivalLane="3to1_1" arrivalPos="200.00" arrivalSpeed="28.72" duration="24.00" routeLength="423.21" waitingTime="0.00" waitingCount="0" stopTime="0.00" timeLoss="9.07" rerouteNo="0" devices="tripinfo_flow3.18" vType="Taxi" speedFactor="1.00" vaporized=""/>
    <tripinfo id="flow4.16" depart="149.00" departLane="1to3_0" departPos="3.10" departSpeed="0.00" departDelay="59.00" arrival="180.00" arrivalLane="3to5_1" arrivalPos="200.00" arrivalSpeed="18.47" duration="31.00" routeLength="424.24" waitingTime="0.00" waitingCount="0" stopTime="0.00" timeLoss="9.38" rerouteNo="0" devices="tripinfo_flow4.16" vType="vtype1" speedFactor="1.16" vaporized=""/>
    <tripinfo id="flow0.15" depart="99.00" departLane="2to3_0" departPos="3.10" departSpeed="0.00" departDelay="84.00" arrival="197.00" arrivalLane="4to8_0" arrivalPos="200.00" arrivalSpeed="19.96" duration="98.00" routeLength="651.72" waitingTime="51.00" waitingCount="1" stopTime="0.00" timeLoss="64.85" rerouteNo="0" devices="tripinfo_flow0.15" vType="vtype1" speedFactor="1.15" vaporized=""/>
    <tripinfo id="flow0.17" depart="101.00" departLane="2to3_0" departPos="3.10" departSpeed="0.00" departDelay="84.00" arrival="197.00" arrivalLane="4to8_2" arrivalPos="200.00" arrivalSpeed="18.66" duration="96.00" routeLength="651.72" waitingTime="44.00" waitingCount="2" stopTime="0.00" timeLoss="63.34" rerouteNo="0" devices="tripinfo_flow0.17" vType="vtype1" speedFactor="1.00" vaporized=""/>
    <tripinfo id="flow4.13" depart="137.00" departLane="1to3_0" departPos="3.10" departSpeed="0.00" departDelay="47.00" arrival="197.00" arrivalLane="3to5_0" arrivalPos="200.00" arrivalSpeed="18.34" duration="60.00" routeLength="424.24" waitingTime="18.00" waitingCount="4" stopTime="0.00" timeLoss="38.18" rerouteNo="0" devices="tripinfo_flow4.13" vType="vtype1" speedFactor="0.94" vaporized=""/>
    <tripinfo id="flow0.16" depart="100.00" departLane="2to3_0" departPos="3.10" departSpeed="0.00" departDelay="84.00" arrival="198.00" arrivalLane="4to8_0" arrivalPos="200.00" arrivalSpeed="18.36" duration="98.00" routeLength="651.72" waitingTime="45.00" waitingCount="1" stopTime="0.00" timeLoss="64.90" rerouteNo="0" devices="tripinfo_flow0.16" vType="vtype1" speedFactor="0.98" vaporized=""/>
    <tripinfo id="flow0.18" depart="103.00" departLane="2to3_0" departPos="3.10" departSpeed="0.00" departDelay="85.00" arrival="199.00" arrivalLane="4to8_1" arrivalPos="200.00" arrivalSpeed="19.95" duration="96.00" routeLength="651.72" waitingTime="45.00" waitingCount="2" stopTime="0.00" timeLoss="63.11" rerouteNo="0" devices="tripinfo_flow0.18" vType="vtype1" speedFactor="1.04" vaporized=""/>
    <tripinfo id="flow7.4" depart="116.00" departLane="4to3_0" departPos="4.10" departSpeed="0.00" departDelay="16.00" arrival="199.00" arrivalLane="3to2_0" arrivalPos="200.00" arrivalSpeed="27.79" duration="83.00" routeLength="423.14" waitingTime="48.00" waitingCount="2" stopTime="0.00" timeLoss="68.48" rerouteNo="0" devices="tripinfo_flow7.4" vType="vtype0" speedFactor="0.75" vaporized=""/>
    <tripinfo id="flow7.5" depart="119.00" departLane="4to3_0" departPos="4.10" departSpeed="0.00" departDelay="19.00" arrival="200.00" arrivalLane="3to2_2" arrivalPos="200.00" arrivalSpeed="25.99" duration="81.00" routeLength="423.14" waitingTime="38.00" waitingCount="2" stopTime="0.00" timeLoss="66.73" rerouteNo="0" devices="tripinfo_flow7.5" vType="vtype0" speedFactor="0.99" vaporized=""/>
    <tripinfo id="flow7.6" depart="123.00" departLane="4to3_0" departPos="4.10" departSpeed="0.00" departDelay="23.00" arrival="201.00" arrivalLane="3to2_1" arrivalPos="200.00" arrivalSpeed="25.66" duration="78.00" routeLength="423.14" waitingTime="38.00" waitingCount="1" stopTime="0.00" timeLoss="63.82" rerouteNo="0" devices="tripinfo_flow7.6" vType="vtype0" speedFactor="0.92" vaporized=""/>
    <tripinfo id="flow7.7" depart="126.00" departLane="4to3_0" departPos="4.10" departSpeed="0.00" departDelay="26.00" arrival="202.00" arrivalLane="3to2_2" arrivalPos="200.00" arrivalSpeed="25.17" duration="76.00" routeLength="423.14" waitingTime="32.00" waitingCount="1" stopTime="0.00" timeLoss="61.63" rerouteNo="0" devices="tripinfo_flow7.7" vType="vtype0" speedFactor="0.98" vaporized=""/>
    <tripinfo id="flow7.9" depart="133.00" departLane="4to3_0" departPos="4.10" departSpeed="0.00" departDelay="33.00" arrival="204.00" arrivalLane="3to2_1" arrivalPos="200.00" arrivalSpeed="28.51" duration="71.00" routeLength="423.14" waitingTime="28.00" waitingCount="1" stopTime="0.00" timeLoss="56.11" rerouteNo="0" devices="tripinfo_flow7.9" vType="vtype0" speedFactor="0.92" vaporized=""/>
    <tripinfo id="flow7.3" depart="112.00" departLane="4to3_0" departPos="4.10" departSpeed="0.00" departDelay="12.00" arrival="205.00" arrivalLane="3to2_0" arrivalPos="200.00" arrivalSpeed="26.84" duration="93.00" routeLength="423.14" waitingTime="48.00" waitingCount="1" stopTime="0.00" timeLoss="78.14" rerouteNo="0" devices="tripinfo_flow7.3" vType="vtype0" speedFactor="0.90" vaporized=""/>
    <tripinfo id="flow7.8" depart="129.00" departLane="4to3_0" departPos="4.10" departSpeed="0.00" departDelay="29.00" arrival="206.00" arrivalLane="3to2_0" arrivalPos="200.00" arrivalSpeed="25.05" duration="77.00" routeLength="423.14" waitingTime="31.00" waitingCount="1" stopTime="0.00" timeLoss="62.76" rerouteNo="0" devices="tripinfo_flow7.8" vType="vtype0" speedFactor="1.01" vaporized=""/>
    <tripinfo id="flow7.12" depart="143.00" departLane="4to3_0" departPos="4.10" departSpeed="0.00" departDelay="43.00" arrival="206.00" arrivalLane="3to2_2" arrivalPos="200.00" arrivalSpeed="23.97" duration="63.00" routeLength="423.14" waitingTime="20.00" waitingCount="1" stopTime="0.00" timeLoss="48.42" rerouteNo="0" devices="tripinfo_flow7.12" vType="vtype0" speedFactor="0.81" vaporized=""/>
    <tripinfo id="flow7.11" depart="139.00" departLane="4to3_0" departPos="4.10" departSpeed="0.00" departDelay="39.00" arrival="207.00" arrivalLane="3to2_1" arrivalPos="200.00" arrivalSpeed="26.30" duration="68.00" routeLength="423.14" waitingTime="27.00" waitingCount="2" stopTime="0.00" timeLoss="53.31" rerouteNo="0" devices="tripinfo_flow7.11" vType="vtype0" speedFactor="1.03" vaporized=""/>
    <tripinfo id="flow7.13" depart="147.00" departLane="4to3_0" departPos="4.10" departSpeed="0.00" departDelay="47.00" arrival="208.00" arrivalLane="3to2_2" arrivalPos="200.00" arrivalSpeed="23.92" duration="61.00" routeLength="423.14" waitingTime="16.00" waitingCount="1" stopTime="0.00" timeLoss="46.17" rerouteNo="0" devices="tripinfo_flow7.13" vType="vtype0" speedFactor="1.03" vaporized=""/>
    <tripinfo id="flow7.10" depart="136.00" departLane="4to3_0" departPos="4.10" departSpeed="0.00" departDelay="36.00" arrival="209.00" arrivalLane="3to2_0" arrivalPos="200.00" arrivalSpeed="21.77" duration="73.00" routeLength="423.14" waitingTime="26.00" waitingCount="1" stopTime="0.00" timeLoss="58.60" rerouteNo="0" devices="tripinfo_flow7.10" vType="vtype0" speedFactor="0.87" vaporized=""/>
    <tripinfo id="flow7.14" depart="150.00" departLane="4to3_0" departPos="4.10" departSpeed="0.00" departDelay="50.00" arrival="209.00" arrivalLane="3to2_1" arrivalPos="200.00" arrivalSpeed="25.87" duration="59.00" routeLength="423.14" waitingTime="16.00" waitingCount="1" stopTime="0.00" timeLoss="44.32" rerouteNo="0" devices="tripinfo_flow7.14" vType="vtype0" speedFactor="1.05" vaporized=""/>
    <tripinfo id="flow7.17" depart="160.00" departLane="4to3_0" departPos="4.10" departSpeed="0.00" departDelay="60.00" arrival="209.00" arrivalLane="3to2_2" arrivalPos="200.00" arrivalSpeed="23.67" duration="49.00" routeLength="423.14" waitingTime="5.00" waitingCount="2" stopTime="0.00" timeLoss="34.60" rerouteNo="0" devices="tripinfo_flow7.17" vType="vtype0" speedFactor="1.10" vaporized=""/>